<?xml version="1.0"?>
<VTKFile type="PolyData" version="0.1" byte_order="LittleEndian" header_type="UInt32" compressor="vtkZLibDataCompressor">
  <PolyData>
    <Piece NumberOfPoints="2442" NumberOfVerts="0" NumberOfLines="0" NumberOfStrips="0" NumberOfPolys="2176">
      <PointData>
      </PointData>
      <CellData Scalars="voxelmodel">
        <DataArray type="Float64" Name="voxelmodel" format="ascii" RangeMin="0" RangeMax="0">
          0 0 0 0 0 0
          0 0 0 0 0 0
          0 0 0 0 0 0
          0 0 0 0 0 0
          0 0 0 0 0 0
          0 0 0 0 0 0
          0 0 0 0 0 0
          0 0 0 0 0 0
          0 0 0 0 0 0
          0 0 0 0 0 0
          0 0 0 0 0 0
          0 0 0 0 0 0
          0 0 0 0 0 0
          0 0 0 0 0 0
          0 0 0 0 0 0
          0 0 0 0 0 0
          0 0 0 0 0 0
          0 0 0 0 0 0
          0 0 0 0 0 0
          0 0 0 0 0 0
          0 0 0 0 0 0
          0 0 0 0 0 0
          0 0 0 0 0 0
          0 0 0 0 0 0
          0 0 0 0 0 0
          0 0 0 0 0 0
          0 0 0 0 0 0
          0 0 0 0 0 0
          0 0 0 0 0 0
          0 0 0 0 0 0
          0 0 0 0 0 0
          0 0 0 0 0 0
          0 0 0 0 0 0
          0 0 0 0 0 0
          0 0 0 0 0 0
          0 0 0 0 0 0
          0 0 0 0 0 0
          0 0 0 0 0 0
          0 0 0 0 0 0
          0 0 0 0 0 0
          0 0 0 0 0 0
          0 0 0 0 0 0
          0 0 0 0 0 0
          0 0 0 0 0 0
          0 0 0 0 0 0
          0 0 0 0 0 0
          0 0 0 0 0 0
          0 0 0 0 0 0
          0 0 0 0 0 0
          0 0 0 0 0 0
          0 0 0 0 0 0
          0 0 0 0 0 0
          0 0 0 0 0 0
          0 0 0 0 0 0
          0 0 0 0 0 0
          0 0 0 0 0 0
          0 0 0 0 0 0
          0 0 0 0 0 0
          0 0 0 0 0 0
          0 0 0 0 0 0
          0 0 0 0 0 0
          0 0 0 0 0 0
          0 0 0 0 0 0
          0 0 0 0 0 0
          0 0 0 0 0 0
          0 0 0 0 0 0
          0 0 0 0 0 0
          0 0 0 0 0 0
          0 0 0 0 0 0
          0 0 0 0 0 0
          0 0 0 0 0 0
          0 0 0 0 0 0
          0 0 0 0 0 0
          0 0 0 0 0 0
          0 0 0 0 0 0
          0 0 0 0 0 0
          0 0 0 0 0 0
          0 0 0 0 0 0
          0 0 0 0 0 0
          0 0 0 0 0 0
          0 0 0 0 0 0
          0 0 0 0 0 0
          0 0 0 0 0 0
          0 0 0 0 0 0
          0 0 0 0 0 0
          0 0 0 0 0 0
          0 0 0 0 0 0
          0 0 0 0 0 0
          0 0 0 0 0 0
          0 0 0 0 0 0
          0 0 0 0 0 0
          0 0 0 0 0 0
          0 0 0 0 0 0
          0 0 0 0 0 0
          0 0 0 0 0 0
          0 0 0 0 0 0
          0 0 0 0 0 0
          0 0 0 0 0 0
          0 0 0 0 0 0
          0 0 0 0 0 0
          0 0 0 0 0 0
          0 0 0 0 0 0
          0 0 0 0 0 0
          0 0 0 0 0 0
          0 0 0 0 0 0
          0 0 0 0 0 0
          0 0 0 0 0 0
          0 0 0 0 0 0
          0 0 0 0 0 0
          0 0 0 0 0 0
          0 0 0 0 0 0
          0 0 0 0 0 0
          0 0 0 0 0 0
          0 0 0 0 0 0
          0 0 0 0 0 0
          0 0 0 0 0 0
          0 0 0 0 0 0
          0 0 0 0 0 0
          0 0 0 0 0 0
          0 0 0 0 0 0
          0 0 0 0 0 0
          0 0 0 0 0 0
          0 0 0 0 0 0
          0 0 0 0 0 0
          0 0 0 0 0 0
          0 0 0 0 0 0
          0 0 0 0 0 0
          0 0 0 0 0 0
          0 0 0 0 0 0
          0 0 0 0 0 0
          0 0 0 0 0 0
          0 0 0 0 0 0
          0 0 0 0 0 0
          0 0 0 0 0 0
          0 0 0 0 0 0
          0 0 0 0 0 0
          0 0 0 0 0 0
          0 0 0 0 0 0
          0 0 0 0 0 0
          0 0 0 0 0 0
          0 0 0 0 0 0
          0 0 0 0 0 0
          0 0 0 0 0 0
          0 0 0 0 0 0
          0 0 0 0 0 0
          0 0 0 0 0 0
          0 0 0 0 0 0
          0 0 0 0 0 0
          0 0 0 0 0 0
          0 0 0 0 0 0
          0 0 0 0 0 0
          0 0 0 0 0 0
          0 0 0 0 0 0
          0 0 0 0 0 0
          0 0 0 0 0 0
          0 0 0 0 0 0
          0 0 0 0 0 0
          0 0 0 0 0 0
          0 0 0 0 0 0
          0 0 0 0 0 0
          0 0 0 0 0 0
          0 0 0 0 0 0
          0 0 0 0 0 0
          0 0 0 0 0 0
          0 0 0 0 0 0
          0 0 0 0 0 0
          0 0 0 0 0 0
          0 0 0 0 0 0
          0 0 0 0 0 0
          0 0 0 0 0 0
          0 0 0 0 0 0
          0 0 0 0 0 0
          0 0 0 0 0 0
          0 0 0 0 0 0
          0 0 0 0 0 0
          0 0 0 0 0 0
          0 0 0 0 0 0
          0 0 0 0 0 0
          0 0 0 0 0 0
          0 0 0 0 0 0
          0 0 0 0 0 0
          0 0 0 0 0 0
          0 0 0 0 0 0
          0 0 0 0 0 0
          0 0 0 0 0 0
          0 0 0 0 0 0
          0 0 0 0 0 0
          0 0 0 0 0 0
          0 0 0 0 0 0
          0 0 0 0 0 0
          0 0 0 0 0 0
          0 0 0 0 0 0
          0 0 0 0 0 0
          0 0 0 0 0 0
          0 0 0 0 0 0
          0 0 0 0 0 0
          0 0 0 0 0 0
          0 0 0 0 0 0
          0 0 0 0 0 0
          0 0 0 0 0 0
          0 0 0 0 0 0
          0 0 0 0 0 0
          0 0 0 0 0 0
          0 0 0 0 0 0
          0 0 0 0 0 0
          0 0 0 0 0 0
          0 0 0 0 0 0
          0 0 0 0 0 0
          0 0 0 0 0 0
          0 0 0 0 0 0
          0 0 0 0 0 0
          0 0 0 0 0 0
          0 0 0 0 0 0
          0 0 0 0 0 0
          0 0 0 0 0 0
          0 0 0 0 0 0
          0 0 0 0 0 0
          0 0 0 0 0 0
          0 0 0 0 0 0
          0 0 0 0 0 0
          0 0 0 0 0 0
          0 0 0 0 0 0
          0 0 0 0 0 0
          0 0 0 0 0 0
          0 0 0 0 0 0
          0 0 0 0 0 0
          0 0 0 0 0 0
          0 0 0 0 0 0
          0 0 0 0 0 0
          0 0 0 0 0 0
          0 0 0 0 0 0
          0 0 0 0 0 0
          0 0 0 0 0 0
          0 0 0 0 0 0
          0 0 0 0 0 0
          0 0 0 0 0 0
          0 0 0 0 0 0
          0 0 0 0 0 0
          0 0 0 0 0 0
          0 0 0 0 0 0
          0 0 0 0 0 0
          0 0 0 0 0 0
          0 0 0 0 0 0
          0 0 0 0 0 0
          0 0 0 0 0 0
          0 0 0 0 0 0
          0 0 0 0 0 0
          0 0 0 0 0 0
          0 0 0 0 0 0
          0 0 0 0 0 0
          0 0 0 0 0 0
          0 0 0 0 0 0
          0 0 0 0 0 0
          0 0 0 0 0 0
          0 0 0 0 0 0
          0 0 0 0 0 0
          0 0 0 0 0 0
          0 0 0 0 0 0
          0 0 0 0 0 0
          0 0 0 0 0 0
          0 0 0 0 0 0
          0 0 0 0 0 0
          0 0 0 0 0 0
          0 0 0 0 0 0
          0 0 0 0 0 0
          0 0 0 0 0 0
          0 0 0 0 0 0
          0 0 0 0 0 0
          0 0 0 0 0 0
          0 0 0 0 0 0
          0 0 0 0 0 0
          0 0 0 0 0 0
          0 0 0 0 0 0
          0 0 0 0 0 0
          0 0 0 0 0 0
          0 0 0 0 0 0
          0 0 0 0 0 0
          0 0 0 0 0 0
          0 0 0 0 0 0
          0 0 0 0 0 0
          0 0 0 0 0 0
          0 0 0 0 0 0
          0 0 0 0 0 0
          0 0 0 0 0 0
          0 0 0 0 0 0
          0 0 0 0 0 0
          0 0 0 0 0 0
          0 0 0 0 0 0
          0 0 0 0 0 0
          0 0 0 0 0 0
          0 0 0 0 0 0
          0 0 0 0 0 0
          0 0 0 0 0 0
          0 0 0 0 0 0
          0 0 0 0 0 0
          0 0 0 0 0 0
          0 0 0 0 0 0
          0 0 0 0 0 0
          0 0 0 0 0 0
          0 0 0 0 0 0
          0 0 0 0 0 0
          0 0 0 0 0 0
          0 0 0 0 0 0
          0 0 0 0 0 0
          0 0 0 0 0 0
          0 0 0 0 0 0
          0 0 0 0 0 0
          0 0 0 0 0 0
          0 0 0 0 0 0
          0 0 0 0 0 0
          0 0 0 0 0 0
          0 0 0 0 0 0
          0 0 0 0 0 0
          0 0 0 0 0 0
          0 0 0 0 0 0
          0 0 0 0 0 0
          0 0 0 0 0 0
          0 0 0 0 0 0
          0 0 0 0 0 0
          0 0 0 0 0 0
          0 0 0 0 0 0
          0 0 0 0 0 0
          0 0 0 0 0 0
          0 0 0 0 0 0
          0 0 0 0 0 0
          0 0 0 0 0 0
          0 0 0 0 0 0
          0 0 0 0 0 0
          0 0 0 0 0 0
          0 0 0 0 0 0
          0 0 0 0 0 0
          0 0 0 0 0 0
          0 0 0 0 0 0
          0 0 0 0 0 0
          0 0 0 0 0 0
          0 0 0 0 0 0
          0 0 0 0 0 0
          0 0 0 0 0 0
          0 0 0 0 0 0
          0 0 0 0 0 0
          0 0 0 0 0 0
          0 0 0 0 0 0
          0 0 0 0 0 0
          0 0 0 0 0 0
          0 0 0 0 0 0
          0 0 0 0 0 0
          0 0 0 0 0 0
          0 0 0 0 0 0
          0 0 0 0 0 0
          0 0 0 0 0 0
          0 0 0 0 0 0
          0 0 0 0 0 0
          0 0 0 0 0 0
          0 0 0 0 0 0
          0 0 0 0 0 0
          0 0 0 0 0 0
          0 0 0 0 0 0
          0 0 0 0 0 0
          0 0 0 0 0 0
          0 0 0 0 0 0
          0 0 0 0 0 0
          0 0 0 0 0 0
          0 0 0 0
        </DataArray>
      </CellData>
      <Points>
        <DataArray type="Float32" Name="Points" NumberOfComponents="3" format="ascii" RangeMin="6470999.7329" RangeMax="7571000.3462">
          5235143.5 0 3803566 5234695 68526.070313 3803566
          5233349.5 137040.39063 3803566 5231107.5 205531.25 3803566
          5227969 273986.875 3803566 5223934.5 342395.5625 3803566
          5219005 410745.5625 3803566 5213181.5 479025.21875 3803566
          5206464.5 547222.75 3803566 5198855.5 615326.5625 3803566
          5190356 683324.9375 3803566 5180966.5 751206.1875 3803566
          5170690 818958.75 3803566 5159527 886571 3803566
          5147480 954031.3125 3803566 5134551 1021328.1875 3803566
          5120742.5 1088450 3803566 5106056.5 1155385.375 3803566
          5090495.5 1222122.75 3803566 5074062 1288650.75 3803566
          5056759.5 1354957.875 3803566 5038590 1421032.875 3803566
          5019558 1486864.375 3803566 4999665 1552441.125 3803566
          4978916 1617751.875 3803566 4957313.5 1682785.5 3803566
          4934862 1747530.75 3803566 4911564.5 1811976.5 3803566
          4887426 1876111.75 3803566 4862449.5 1939925.625 3803566
          4836640 2003407.125 3803566 4810002 2066545.25 3803566
          4782539.5 2129329.25 3803566 5184907.5 0 3871766.25
          5184463.5 67868.5 3871766.25 5183131 135725.375 3871766.25
          5180910 203559 3871766.25 5177802 271357.71875 3871766.25
          5173806.5 339109.96875 3871766.25 5168924 406804.125 3871766.25
          5163156.5 474428.53125 3871766.25 5156504 541971.6875 3871766.25
          5148968 609421.9375 3871766.25 5140550 676767.8125 3871766.25
          5131251 743997.6875 3871766.25 5121072.5 811100.125 3871766.25
          5110017 878063.5625 3871766.25 5098085.5 944876.5625 3871766.25
          5085280.5 1011527.625 3871766.25 5071604.5 1078005.375 3871766.25
          5057059 1144298.5 3871766.25 5041647.5 1210395.375 3871766.25
          5025372 1276285 3871766.25 5008235.5 1341955.875 3871766.25
          4990240.5 1407396.875 3871766.25 4971391 1472596.625 3871766.25
          4951689 1537544.125 3871766.25 4931139 1602228.25 3871766.25
          4909744 1666637.75 3871766.25 4887507.5 1730761.625 3871766.25
          4864434 1794589 3871766.25 4840526.5 1858108.875 3871766.25
          4815790 1921310.375 3871766.25 4790228 1984182.625 3871766.25
          4763845.5 2046715 3871766.25 4736646.5 2108896.5 3871766.25
          5133783.5 0 3939303 5133343.5 67199.304688 3939303
          5132024 134387.09375 3939303 5129825.5 201551.85938 3939303
          5126747.5 268682.09375 3939303 5122791.5 335766.28125 3939303
          5117957.5 402792.9375 3939303 5112246.5 469750.59375 3939303
          5105660 536627.75 3939303 5098198 603412.9375 3939303
          5089863 670094.75 3939303 5080655.5 736661.75 3939303
          5070577.5 803102.5 3939303 5059631 869405.6875 3939303
          5047817.5 935559.875 3939303 5035139 1001553.75 3939303
          5021597.5 1067376 3939303 5007195.5 1133015.5 3939303
          4991936 1198460.75 3939303 4975821 1263700.625 3939303
          4958853 1328724 3939303 4941036 1393519.625 3939303
          4922372 1458076.625 3939303 4902864.5 1522383.625 3939303
          4882517 1586429.875 3939303 4861333 1650204.375 3939303
          4839316 1713696 3939303 4816469.5 1776894 3939303
          4792798 1839787.5 3939303 4768305.5 1902365.875 3939303
          4742995.5 1964618.25 3939303 4716873 2026534 3939303
          4689942.5 2088102.375 3939303 5081779.5 0 4006165
          5081344 66518.59375 4006165 5080038 133025.79688 4006165
          5077861.5 199510.20313 4006165 5074815 265960.40625 4006165
          5070899 332365.0625 4006165 5066114 398712.75 4006165
          5060461 464992.15625 4006165 5053941 531191.875 4006165
          5046555 597300.5625 4006165 5038304 663306.875 4006165
          5029190 729199.5625 4006165 5019214 794967.3125 4006165
          5008378.5 860598.875 4006165 4996684.5 926082.9375 4006165
          4984134 991408.3125 4006165 4970730 1056563.875 4006165
          4956474 1121538.25 4006165 4941369 1186320.625 4006165
          4925417 1250899.625 4006165 4908621.5 1315264.375 4006165
          4890984.5 1379403.625 4006165 4872509.5 1443306.625 4006165
          4853200 1506962.375 4006165 4833058.5 1570359.75 4006165
          4812089 1633488.25 4006165 4790295 1696336.75 4006165
          4767680 1758894.5 4006165 4744248.5 1821151 4006165
          4720004 1883095.375 4006165 4694950.5 1944717.125 4006165
          4669092.5 2006005.75 4006165 4642434.5 2066950.5 4006165
          5028905 0 4072340.25 5028474 65826.484375 4072340.25
          5027181.5 131641.6875 4072340.25 5025028 197434.34375 4072340.25
          5022013 263193.15625 4072340.25 5018137.5 328906.90625 4072340.25
          5013402.5 394564.25 4072340.25 5007808.5 460154.03125 4072340.25
          5001356 525664.9375 4072340.25 4994047 591085.8125 4072340.25
          4985882 656405.375 4072340.25 4976862.5 721612.4375 4072340.25
          4966990.5 786695.875 4072340.25 4956267.5 851644.5625 4072340.25
          4944695 916447.25 4072340.25 4932275.5 981092.9375 4072340.25
          4919011 1045570.5625 4072340.25 4904903.5 1109869 4072340.25
          4889955.5 1173977.25 4072340.25 4874169.5 1237884.375 4072340.25
          4857548.5 1301579.375 4072340.25 4840095 1365051.375 4072340.25
          4821812.5 1428289.5 4072340.25 4802703.5 1491282.75 4072340.25
          4782772 1554020.625 4072340.25 4762020.5 1616492.25 4072340.25
          4740453 1678686.75 4072340.25 4718073.5 1740593.75 4072340.25
          4694886 1802202.375 4072340.25 4670893.5 1863502.25 4072340.25
          4646100.5 1924482.875 4072340.25 4620512 1985133.75 4072340.25
          4594131.5 2045444.5 4072340.25 4975169 0 4137817.75
          4974742.5 65123.097656 4137817.75 4973464 130235.03906 4137817.75
          4971333 195324.67188 4137817.75 4968350.5 260380.82813 4137817.75
          4964516.5 325392.375 4137817.75 4959832 390348.15625 4137817.75
          4954297.5 455237.0625 4137817.75 4947914 520047.96875 4137817.75
          4940683 584769.75 4137817.75 4932605.5 649391.375 4137817.75
          4923682.5 713901.6875 4137817.75 4913916 778289.6875 4137817.75
          4903307.5 842544.3125 4137817.75 4891858.5 906654.625 4137817.75
          4879572 970609.5 4137817.75 4866449 1034398.125 4137817.75
          4852492 1098009.5 4137817.75 4837704 1161432.75 4137817.75
          4822086.5 1224657 4137817.75 4805643 1287671.375 4137817.75
          4788376.5 1350465.125 4137817.75 4770289 1413027.5 4137817.75
          4751384.5 1475347.75 4137817.75 4731665.5 1537415.125 4137817.75
          4711136 1599219.25 4137817.75 4689799 1660749.25 4137817.75
          4667659 1721994.625 4137817.75 4644718.5 1782945 4137817.75
          4620982.5 1843589.875 4137817.75 4596455 1903918.875 4137817.75
          4571139.5 1963921.625 4137817.75 4545041 2023587.875 4137817.75
          4920580 0 4202586.5 4920158.5 64408.554688 4202586.5
          4918894 128806.07031 4202586.5 4916786.5 193181.51563 4202586.5
          4913836.5 257523.85938 4202586.5 4910044.5 321822.09375 4202586.5
          4905411.5 386065.15625 4202586.5 4899938 450242.09375 4202586.5
          4893624.5 514341.875 4202586.5 4886472.5 578353.5 4202586.5
          4878483.5 642266.0625 4202586.5 4869658.5 706068.5625 4202586.5
          4859999.5 769750.125 4202586.5 4849507 833299.75 4202586.5
          4838184 896706.5625 4202586.5 4826032 959959.75 4202586.5
          4813053 1023048.5 4202586.5 4799249.5 1085961.875 4202586.5
          4784623.5 1148689.25 4202586.5 4769177.5 1211219.75 4202586.5
          4752914.5 1273542.75 4202586.5 4735837 1335647.5 4202586.5
          4717948.5 1397523.375 4202586.5 4699251 1459159.875 4202586.5
          4679748.5 1520546.25 4202586.5 4659444.5 1581672.25 4202586.5
          4638341.5 1642527.125 4202586.5 4616444 1703100.5 4202586.5
          4593755.5 1763382.125 4202586.5 4570280 1823361.625 4202586.5
          4546021.5 1883028.625 4202586.5 4520984 1942373 4202586.5
          4495171.5 2001384.625 4202586.5 4865148 0 4266635
          4864731.5 63682.972656 4266635 4863481 127355.03125 4266635
          4861397.5 191005.26563 4266635 4858480.5 254622.78125 4266635
          4854731.5 318196.65625 4266635 4850150.5 381716.03125 4266635
          4844738.5 445169.96875 4266635 4838496.5 508547.65625 4266635
          4831425 571838.1875 4266635 4823526 635030.75 4266635
          4814800.5 698114.5 4266635 4805250 761078.625 4266635
          4794876 823912.3125 4266635 4783680.5 886604.875 4266635
          4771665.5 949145.5 4266635 4758832.5 1011523.5 4266635
          4745184.5 1073728.25 4266635 4730723 1135748.875 4266635
          4715451.5 1197575 4266635 4699371.5 1259195.875 4266635
          4682486.5 1320601 4266635 4664799 1381779.875 4266635
          4646312.5 1442722 4266635 4627030 1503416.875 4266635
          4606954 1563854.125 4266635 4586089.5 1624023.5 4266635
          4564438.5 1683914.5 4266635 4542005.5 1743517.125 4266635
          4518794.5 1802820.875 4266635 4494809 1861815.75 4266635
          4470053.5 1920491.625 4266635 4444532 1978838.375 4266635
          4808882.5 0 4329952.5 4808471 62946.476563 4329952.5
          4807235 125882.17188 4329952.5 4805175.5 188796.29688 4329952.5
          4802292.5 251678.0625 4329952.5 4798586.5 314516.71875 4329952.5
          4794058.5 377301.46875 4329952.5 4788709 440021.59375 4329952.5
          4782539 502666.28125 4329952.5 4775549.5 565224.875 4329952.5
          4767742 627686.625 4329952.5 4759117 690040.8125 4329952.5
          4749677 752276.75 4329952.5 4739423 814383.8125 4329952.5
          4728357 876351.3125 4329952.5 4716481 938168.625 4329952.5
          4703796.5 999825.25 4329952.5 4690306.5 1061310.5 4329952.5
          4676012.5 1122614 4329952.5 4660917 1183725 4329952.5
          4645023.5 1244633.25 4329952.5 4628333.5 1305328.25 4329952.5
          4610851 1365799.625 4329952.5 4592578 1426036.875 4329952.5
          4573518 1486029.875 4329952.5 4553675 1545768.125 4329952.5
          4533051 1605241.625 4329952.5 4511650.5 1664440.125 4329952.5
          4489477.5 1723353.25 4329952.5 4466534.5 1781971.25 4329952.5
          4442826.5 1840283.875 4329952.5 4418357.5 1898281.125 4329952.5
          4393131 1955953.125 4329952.5 4751793.5 0 4392528
          4751386 62199.199219 4392528 4750165 124387.73438 4392528
          4748130 186554.96875 4392528 4745281 248690.23438 4392528
          4741619.5 310782.875 4392528 4737145 372822.28125 4392528
          4731859 434797.78125 4392528 4725762.5 496698.8125 4392528
          4718856 558514.6875 4392528 4711141 620234.9375 4392528
          4702618.5 681848.875 4392528 4693290.5 743345.9375 4392528
          4683158.5 804715.6875 4392528 4672223.5 865947.5625 4392528
          4660488.5 927031 4392528 4647954.5 987955.625 4392528
          4634624.5 1048711 4392528 4620500.5 1109286.625 4392528
          4605584.5 1169672.25 4392528 4589879 1229857.375 4392528
          4573387.5 1289831.875 4392528 4556112.5 1349585.25 4392528
          4538056.5 1409107.5 4392528 4519223 1468388.25 4392528
          4499615 1527417.375 4392528 4479236.5 1586184.75 4392528
          4458090 1644680.375 4392528 4436180 1702894.25 4392528
          4413509.5 1760816.25 4392528 4390083 1818436.625 4392528
          4365904 1875745.375 4392528 4340977.5 1932732.75 4392528
          4693889.5 0 4454351 4693487.5 61441.261719 4454351
          4692281 122871.99219 4454351 4690271 184281.67188 4454351
          4687457 245659.78125 4454351 4683839.5 306995.78125 4454351
          4679420 368279.1875 4454351 4674198.5 429499.5 4454351
          4668176 490646.21875 4454351 4661353.5 551708.875 4454351
          4653732.5 612676.9375 4454351 4645314 673540.125 4454351
          4636100 734287.8125 4454351 4626091 794909.75 4454351
          4615289.5 855395.4375 4454351 4603697.5 915734.5625 4454351
          4591316.5 975916.8125 4454351 4578148.5 1035931.8125 4454351
          4564196.5 1095769.25 4454351 4549462.5 1155419 4454351
          4533948.5 1214870.75 4454351 4517658 1274114.375 4454351
          4500593 1333139.75 4454351 4482757 1391936.625 4454351
          4464153.5 1450495 4454351 4444784.5 1508804.75 4454351
          4424654 1566856.125 4454351 4403765.5 1624638.875 4454351
          4382122 1682143.375 4454351 4359728 1739359.625 4454351
          4336587 1796277.75 4454351 4312703 1852888.25 4454351
          4288079.5 1909181.125 4454351 4635181.5 0 4515410.5
          4634784.5 60672.796875 4515410.5 4633593.5 121335.19531 4515410.5
          4631608 181976.8125 4515410.5 4628829.5 242587.23438 4515410.5
          4625257.5 303156.09375 4515410.5 4620893 363673 4515410.5
          4615736.5 424127.625 4515410.5 4609789.5 484509.5625 4515410.5
          4603052.5 544808.4375 4515410.5 4595527 605014 4515410.5
          4587214 665115.9375 4515410.5 4578114.5 725103.875 4515410.5
          4568231 784967.5625 4515410.5 4557565 844696.75 4515410.5
          4546117.5 904281.1875 4515410.5 4533891.5 963710.6875 4515410.5
          4520888.5 1022975.0625 4515410.5 4507110.5 1082064.125 4515410.5
          4492560.5 1140967.875 4515410.5 4477241 1199676 4515410.5
          4461154 1258178.625 4515410.5 4444303 1316465.75 4515410.5
          4426690 1374527.25 4515410.5 4408318.5 1432353.125 4515410.5
          4389192 1489933.75 4515410.5 4369313.5 1547258.875 4515410.5
          4348686 1604319 4515410.5 4327313.5 1661104.25 4515410.5
          4305199.5 1717604.875 4515410.5 4282348 1773811.125 4515410.5
          4258762.5 1829713.5 4515410.5 4234447.5 1885302.375 4515410.5
          4575679.5 0 4575696.5 4575287.5 59893.933594 4575696.5
          4574111.5 119777.60938 4575696.5 4572152 179640.75 4575696.5
          4569408.5 239473.125 4575696.5 4565882.5 299264.46875 4575696.5
          4561574 359004.53125 4575696.5 4556484 418683.0625 4575696.5
          4550613.5 478289.875 4575696.5 4543963 537814.75 4575696.5
          4536534 597247.4375 4575696.5 4528327.5 656577.8125 4575696.5
          4519345 715795.625 4575696.5 4509588.5 774890.875 4575696.5
          4499059 833853.3125 4575696.5 4487759 892672.875 4575696.5
          4475689.5 951339.5 4575696.5 4462853.5 1009843.0625 4575696.5
          4449252.5 1068173.625 4575696.5 4434889.5 1126321.125 4575696.5
          4419766.5 1184275.75 4575696.5 4403886 1242027.375 4575696.5
          4387251 1299566.125 4575696.5 4369864.5 1356882.25 4575696.5
          4351729 1413966 4575696.5 4332847.5 1470807.25 4575696.5
          4313224 1527396.625 4575696.5 4292861.5 1583724.25 4575696.5
          4271763.5 1639780.625 4575696.5 4249933.5 1695555.875 4575696.5
          4227375 1751040.625 4575696.5 4204092.5 1806225.375 4575696.5
          4180089.5 1861100.625 4575696.5 4515393.5 0 4635198.5
          4515006.5 59104.8125 4635198.5 4513846 118199.5 4635198.5
          4511912 177273.92188 4635198.5 4509205 236317.98438 4635198.5
          4505725.5 295321.5625 4635198.5 4501474 354274.5 4635198.5
          4496451 413166.78125 4635198.5 4490657.5 471988.21875 4635198.5
          4484094.5 530728.8125 4635198.5 4476763.5 589378.5 4635198.5
          4468665 647927.125 4635198.5 4459801 706364.8125 4635198.5
          4450173 764681.375 4635198.5 4439782.5 822867 4635198.5
          4428631 880911.5625 4635198.5 4416721 938805.25 4635198.5
          4404054 996538.0625 4635198.5 4390632 1054100.125 4635198.5
          4376458 1111481.5 4635198.5 4361534.5 1168672.5 4635198.5
          4345863 1225663.25 4635198.5 4329447.5 1282443.875 4635198.5
          4312290 1339004.875 4635198.5 4294393.5 1395336.5 4635198.5
          4275761 1451428.875 4635198.5 4256396 1507272.625 4635198.5
          4236301.5 1562858.125 4635198.5 4215481.5 1618175.875 4635198.5
          4193939 1673216.375 4635198.5 4171678 1727970.125 4635198.5
          4148702 1782427.75 4635198.5 4125015.25 1836580 4635198.5
          4454333.5 0 4693906 4453952 58305.5625 4693906
          4452807 116601.13281 4693906 4450899.5 174876.71875 4693906
          4448229 233122.34375 4693906 4444796.5 291328.03125 4693906
          4440602.5 349483.8125 4693906 4435647 407579.6875 4693906
          4429932 465605.71875 4693906 4423458 523552 4693906
          4416226 581408.5625 4693906 4408237 639165.5 4693906
          4399493 696812.875 4693906 4389995 754340.9375 4693906
          4379745 811739.6875 4693906 4368744.5 868999.375 4693906
          4356995 926110.125 4693906 4344499.5 983062.25 4693906
          4331259.5 1039845.875 4693906 4317277 1096451.375 4693906
          4302555 1152869 4693906 4287096 1209089 4693906
          4270902 1265102 4693906 4253976.5 1320898.125 4693906
          4236322 1376467.875 4693906 4217941.5 1431801.875 4693906
          4198838.5 1486890.375 4693906 4179015.75 1541724.25 4693906
          4158477.25 1596294 4693906 4137226 1650590.125 4693906
          4115266 1704603.375 4693906 4092600.75 1758324.625 4693906
          4069234.5 1811744.625 4693906 4392510.5 0 4751809.5
          4392134 57496.320313 4751809.5 4391005.5 114982.78906 4751809.5
          4389124 172449.54688 4751809.5 4386490.5 229886.76563 4751809.5
          4383105.5 287284.59375 4751809.5 4378970 344633.1875 4751809.5
          4374083.5 401922.75 4751809.5 4368447.5 459143.4375 4751809.5
          4362063.5 516285.4375 4751809.5 4354931.5 573339 4751809.5
          4347054 630294.3125 4751809.5 4338431 687141.625 4751809.5
          4329065 743871.1875 4751809.5 4318957 800473.3125 4751809.5
          4308109 856938.25 4751809.5 4296523 913256.375 4751809.5
          4284201 969418 4751809.5 4271144.5 1025413.5625 4751809.5
          4257356.5 1081233.375 4751809.5 4242838.5 1136868 4751809.5
          4227594 1192307.75 4751809.5 4211625 1247543.25 4751809.5
          4194934 1302564.875 4751809.5 4177524.75 1357363.5 4751809.5
          4159399.5 1411929.375 4751809.5 4140561.5 1466253.375 4751809.5
          4121014 1520326.25 4751809.5 4100760.5 1574138.5 4751809.5
          4079804.25 1627681 4751809.5 4058149 1680944.75 4751809.5
          4035798.25 1733920.375 4751809.5 4012756.25 1786598.875 4751809.5
          4329934.5 0 4808898.5 4329564 56677.226563 4808898.5
          4328451 113344.74219 4808898.5 4326596.5 169992.84375 4808898.5
          4324000.5 226611.79688 4808898.5 4320664 283191.9375 4808898.5
          4316587 339723.5625 4808898.5 4311770.5 396196.96875 4808898.5
          4306215 452602.46875 4808898.5 4299921.5 508930.4375 4808898.5
          4292891.5 565171.1875 4808898.5 4285125.5 621315.125 4808898.5
          4276626 677352.625 4808898.5 4267393 733274 4808898.5
          4257429 789069.75 4808898.5 4246736 844730.3125 4808898.5
          4235315 900246.125 4808898.5 4223168 955607.6875 4808898.5
          4210297.5 1010805.5 4808898.5 4196706 1065830.125 4808898.5
          4182395 1120672.125 4808898.5 4167367.5 1175322.125 4808898.5
          4151626 1229770.75 4808898.5 4135173 1284008.625 4808898.5
          4118011.75 1338026.5 4808898.5 4100144.5 1391815 4808898.5
          4081575 1445365.125 4808898.5 4062306 1498667.625 4808898.5
          4042341 1551713.25 4808898.5 4021683.25 1604493.125 4808898.5
          4000336.5 1656998 4808898.5 3978304.25 1709218.875 4808898.5
          3955590.5 1761147 4808898.5 4266617 0 4865164
          4266251.5 55848.421875 4865164 4265155 111687.27344 4865164
          4263327.5 167507 4865164 4260770 223298 4865164
          4257482 279050.75 4865164 4253464.5 334755.6875 4865164
          4248718 390403.28125 4865164 4243244 445983.96875 4865164
          4237042.5 501488.25 4865164 4230115.5 556906.5625 4865164
          4222463.5 612229.5 4865164 4214087.5 667447.5 4865164
          4204990 722551.1875 4865164 4195172 777531 4865164
          4184634.75 832377.625 4865164 4173380.75 887081.625 4865164
          4161411.75 941633.625 4865164 4148729.5 996024.25 4865164
          4135336.5 1050244.25 4865164 4121235 1104284.25 4865164
          4106427.25 1158135.125 4865164 4090915.75 1211787.5 4865164
          4074703.5 1265232.25 4865164 4057793 1318460.125 4865164
          4040187.25 1371462.25 4865164 4021889.25 1424229.25 4865164
          4002902 1476752.25 4865164 3983229 1529022.25 4865164
          3962873.25 1581030.25 4865164 3941838.75 1632767.25 4865164
          3920128.75 1684224.625 4865164 3897747 1735393.375 4865164
          4202568.5 0 4920595.5 4202208.5 55010.050781 4920595.5
          4201128.5 110010.67188 4920595.5 4199328.5 164992.45313 4920595.5
          4196809 219945.95313 4920595.5 4193570.25 274861.75 4920595.5
          4189613.25 329730.46875 4920595.5 4184938.25 384542.71875 4920595.5
          4179546.25 439289.03125 4920595.5 4173438 493960.09375 4920595.5
          4166614.75 548546.5 4920595.5 4159077.5 603038.9375 4920595.5
          4150827.5 657428.0625 4920595.5 4141866.5 711704.5 4920595.5
          4132195.75 765859 4920595.5 4121816.75 819882.3125 4920595.5
          4110731.75 873765.125 4920595.5 4098942.25 927498.1875 4920595.5
          4086450.5 981072.375 4920595.5 4073258.5 1034478.4375 4920595.5
          4059368.75 1087707.25 4920595.5 4044783.25 1140749.625 4920595.5
          4029504.75 1193596.625 4920595.5 4013535.75 1246239.125 4920595.5
          3996879 1298668 4920595.5 3979537.5 1350874.375 4920595.5